# vtk DataFile Version 3.0
# comment: converted from file pha_1.dat
ASCII
DATASET STRUCTURED_POINTS
DIMENSIONS 106 106 1
ORIGIN 0.000000 0.000000 0.000000
SPACING 0.200000 0.200000 2.000000

POINT_DATA 11236
SCALARS scalars float
LOOKUP_TABLE default

 0.6194  0.6194  0.6194  0.6194  0.6194  0.6194  0.6194  0.6194  0.6194  0.6194  0.6194  0.6194  0.6194  0.6194  0.6194  0.6194  0.6194  0.6194  0.6194  0.6194  0.6194  0.6194  0.6194  0.6194  0.6194  0.6194  0.6194  0.6194  0.6194  0.6194  0.6194  0.6194  0.6194  0.6194  0.6194  0.6194  0.6194  0.6194  0.6194  0.6194  0.6194  0.6194  0.6194  0.6194  0.6194  0.6194  0.6194  0.6194  0.6194  0.6194  0.6194  0.6194  0.6194  0.6194  0.6194  0.6194  0.6194  0.6194  0.6194  0.6194  0.6194  0.6194  0.6194  0.6194  0.6194  0.6194  0.6194  0.6194  0.6194  0.6194  0.6194  0.6194  0.6194  0.6194  0.6194  0.6194  0.6194  0.6194  0.6194  0.6194  0.6194  0.6194  0.6194  0.6194  0.6194  0.6194  0.6194  0.6194  0.6194  0.6194  0.6194  0.6194  0.6194  0.6194  0.6194  0.6194  0.6194  0.6194  0.6194  0.6194  0.6194  0.6194  0.6194  0.6194  0.6194  0.6194 
-0.1181 -0.1181 -0.1181 -0.1181 -0.1181 -0.1181 -0.1181 -0.1181 -0.1181 -0.1181 -0.1181 -0.1181 -0.1181 -0.1181 -0.1181 -0.1181 -0.1181 -0.1181 -0.1181 -0.1181 -0.1181 -0.1181 -0.1181 -0.1181 -0.1181 -0.1181 -0.1181 -0.1181 -0.1181 -0.1181 -0.1181 -0.1181 -0.1181 -0.1181 -0.1181 -0.1181 -0.1181 -0.1181 -0.1181 -0.1181 -0.1181 -0.1181 -0.1181 -0.1181 -0.1181 -0.1181 -0.1181 -0.1181 -0.1181 -0.1181 -0.1181 -0.1181 -0.1181 -0.1181 -0.1181 -0.1181 -0.1181 -0.1181 -0.1181 -0.1181 -0.1181 -0.1181 -0.1181 -0.1181 -0.1181 -0.1181 -0.1181 -0.1181 -0.1181 -0.1181 -0.1181 -0.1181 -0.1181 -0.1181 -0.1181 -0.1181 -0.1181 -0.1181 -0.1181 -0.1181 -0.1181 -0.1181 -0.1181 -0.1181 -0.1181 -0.1181 -0.1181 -0.1181 -0.1181 -0.1181 -0.1181 -0.1181 -0.1181 -0.1181 -0.1181 -0.1181 -0.1181 -0.1181 -0.1181 -0.1181 -0.1181 -0.1181 -0.1181 -0.1181 -0.1181 -0.1181 
-0.7303 -0.7303 -0.7303 -0.7303 -0.7303 -0.7303 -0.7303 -0.7303 -0.7303 -0.7303 -0.7303 -0.7303 -0.7303 -0.7303 -0.7303 -0.7303 -0.7303 -0.7303 -0.7303 -0.7303 -0.7303 -0.7303 -0.7303 -0.7303 -0.7303 -0.7303 -0.7303 -0.7303 -0.7303 -0.7303 -0.7303 -0.7303 -0.7303 -0.7303 -0.7303 -0.7303 -0.7303 -0.7303 -0.7303 -0.7303 -0.7303 -0.7303 -0.7303 -0.7303 -0.7303 -0.7303 -0.7303 -0.7303 -0.7303 -0.7303 -0.7303 -0.7303 -0.7303 -0.7303 -0.7303 -0.7303 -0.7303 -0.7303 -0.7303 -0.7303 -0.7303 -0.7303 -0.7303 -0.7303 -0.7303 -0.7303 -0.7303 -0.7303 -0.7303 -0.7303 -0.7303 -0.7303 -0.7303 -0.7303 -0.7303 -0.7303 -0.7303 -0.7303 -0.7303 -0.7303 -0.7303 -0.7303 -0.7303 -0.7303 -0.7303 -0.7303 -0.7303 -0.7303 -0.7303 -0.7303 -0.7303 -0.7303 -0.7303 -0.7303 -0.7303 -0.7303 -0.7303 -0.7303 -0.7303 -0.7303 -0.7303 -0.7303 -0.7303 -0.7303 -0.7303 -0.7303 
-0.9232 -0.9232 -0.9232 -0.9232 -0.9232 -0.9232 -0.9232 -0.9232 -0.9232 -0.9232 -0.9232 -0.9232 -0.9232 -0.9232 -0.9232 -0.9232 -0.9232 -0.9232 -0.9232 -0.9232 -0.9232 -0.9232 -0.9232 -0.9232 -0.9232 -0.9232 -0.9232 -0.9232 -0.9232 -0.9232 -0.9232 -0.9232 -0.9232 -0.9232 -0.9232 -0.9232 -0.9232 -0.9232 -0.9232 -0.9232 -0.9232 -0.9232 -0.9232 -0.9232 -0.9232 -0.9232 -0.9232 -0.9232 -0.9232 -0.9232 -0.9232 -0.9232 -0.9232 -0.9232 -0.9232 -0.9232 -0.9232 -0.9232 -0.9232 -0.9232 -0.9232 -0.9232 -0.9232 -0.9232 -0.9232 -0.9232 -0.9232 -0.9232 -0.9232 -0.9232 -0.9232 -0.9232 -0.9232 -0.9232 -0.9232 -0.9232 -0.9232 -0.9232 -0.9232 -0.9232 -0.9232 -0.9232 -0.9232 -0.9232 -0.9232 -0.9232 -0.9232 -0.9232 -0.9232 -0.9232 -0.9232 -0.9232 -0.9232 -0.9232 -0.9232 -0.9232 -0.9232 -0.9232 -0.9232 -0.9232 -0.9232 -0.9232 -0.9232 -0.9232 -0.9232 -0.9232 
-0.9740 -0.9740 -0.9740 -0.9740 -0.9740 -0.9740 -0.9740 -0.9740 -0.9740 -0.9740 -0.9740 -0.9740 -0.9740 -0.9740 -0.9740 -0.9740 -0.9740 -0.9740 -0.9740 -0.9740 -0.9740 -0.9740 -0.9740 -0.9740 -0.9740 -0.9740 -0.9740 -0.9740 -0.9740 -0.9740 -0.9740 -0.9740 -0.9740 -0.9740 -0.9740 -0.9740 -0.9740 -0.9740 -0.9740 -0.9740 -0.9740 -0.9740 -0.9740 -0.9740 -0.9740 -0.9740 -0.9740 -0.9740 -0.9740 -0.9740 -0.9740 -0.9740 -0.9740 -0.9740 -0.9740 -0.9740 -0.9740 -0.9740 -0.9740 -0.9740 -0.9740 -0.9740 -0.9740 -0.9740 -0.9740 -0.9740 -0.9740 -0.9740 -0.9740 -0.9740 -0.9740 -0.9740 -0.9740 -0.9740 -0.9740 -0.9740 -0.9740 -0.9740 -0.9740 -0.9740 -0.9740 -0.9740 -0.9740 -0.9740 -0.9740 -0.9740 -0.9740 -0.9740 -0.9740 -0.9740 -0.9740 -0.9740 -0.9740 -0.9740 -0.9740 -0.9740 -0.9740 -0.9740 -0.9740 -0.9740 -0.9740 -0.9740 -0.9740 -0.9740 -0.9740 -0.9740 
-0.9869 -0.9869 -0.9869 -0.9869 -0.9869 -0.9869 -0.9869 -0.9869 -0.9869 -0.9869 -0.9869 -0.9869 -0.9869 -0.9869 -0.9869 -0.9869 -0.9869 -0.9869 -0.9869 -0.9869 -0.9869 -0.9869 -0.9869 -0.9869 -0.9869 -0.9869 -0.9869 -0.9869 -0.9869 -0.9869 -0.9869 -0.9869 -0.9869 -0.9869 -0.9869 -0.9869 -0.9869 -0.9869 -0.9869 -0.9869 -0.9869 -0.9869 -0.9869 -0.9869 -0.9869 -0.9869 -0.9869 -0.9869 -0.9869 -0.9869 -0.9869 -0.9869 -0.9869 -0.9869 -0.9869 -0.9869 -0.9869 -0.9869 -0.9869 -0.9869 -0.9869 -0.9869 -0.9869 -0.9869 -0.9869 -0.9869 -0.9869 -0.9869 -0.9869 -0.9869 -0.9869 -0.9869 -0.9869 -0.9869 -0.9869 -0.9869 -0.9869 -0.9869 -0.9869 -0.9869 -0.9869 -0.9869 -0.9869 -0.9869 -0.9869 -0.9869 -0.9869 -0.9869 -0.9869 -0.9869 -0.9869 -0.9869 -0.9869 -0.9869 -0.9869 -0.9869 -0.9869 -0.9869 -0.9869 -0.9869 -0.9869 -0.9869 -0.9869 -0.9869 -0.9869 -0.9869 
-0.9832 -0.9832 -0.9832 -0.9832 -0.9832 -0.9832 -0.9832 -0.9832 -0.9832 -0.9832 -0.9832 -0.9832 -0.9832 -0.9832 -0.9832 -0.9832 -0.9832 -0.9832 -0.9832 -0.9832 -0.9832 -0.9832 -0.9832 -0.9832 -0.9832 -0.9832 -0.9832 -0.9832 -0.9832 -0.9832 -0.9832 -0.9832 -0.9832 -0.9832 -0.9832 -0.9832 -0.9832 -0.9832 -0.9832 -0.9832 -0.9832 -0.9832 -0.9832 -0.9832 -0.9832 -0.9832 -0.9832 -0.9832 -0.9832 -0.9832 -0.9832 -0.9832 -0.9832 -0.9832 -0.9832 -0.9832 -0.9832 -0.9832 -0.9832 -0.9832 -0.9832 -0.9832 -0.9832 -0.9832 -0.9832 -0.9832 -0.9832 -0.9832 -0.9832 -0.9832 -0.9832 -0.9832 -0.9832 -0.9832 -0.9832 -0.9832 -0.9832 -0.9832 -0.9832 -0.9832 -0.9832 -0.9832 -0.9832 -0.9832 -0.9832 -0.9832 -0.9832 -0.9832 -0.9832 -0.9832 -0.9832 -0.9832 -0.9832 -0.9832 -0.9832 -0.9832 -0.9832 -0.9832 -0.9832 -0.9832 -0.9832 -0.9832 -0.9832 -0.9832 -0.9832 -0.9832 
-0.9571 -0.9571 -0.9571 -0.9571 -0.9571 -0.9571 -0.9571 -0.9571 -0.9571 -0.9571 -0.9571 -0.9571 -0.9571 -0.9571 -0.9571 -0.9571 -0.9571 -0.9571 -0.9571 -0.9571 -0.9571 -0.9571 -0.9571 -0.9571 -0.9571 -0.9571 -0.9571 -0.9571 -0.9571 -0.9571 -0.9571 -0.9571 -0.9571 -0.9571 -0.9571 -0.9571 -0.9571 -0.9571 -0.9571 -0.9571 -0.9571 -0.9571 -0.9571 -0.9571 -0.9571 -0.9571 -0.9571 -0.9571 -0.9571 -0.9571 -0.9571 -0.9571 -0.9571 -0.9571 -0.9571 -0.9571 -0.9571 -0.9571 -0.9571 -0.9571 -0.9571 -0.9571 -0.9571 -0.9571 -0.9571 -0.9571 -0.9571 -0.9571 -0.9571 -0.9571 -0.9571 -0.9571 -0.9571 -0.9571 -0.9571 -0.9571 -0.9571 -0.9571 -0.9571 -0.9571 -0.9571 -0.9571 -0.9571 -0.9571 -0.9571 -0.9571 -0.9571 -0.9571 -0.9571 -0.9571 -0.9571 -0.9571 -0.9571 -0.9571 -0.9571 -0.9571 -0.9571 -0.9571 -0.9571 -0.9571 -0.9571 -0.9571 -0.9571 -0.9571 -0.9571 -0.9571 
-0.8620 -0.8620 -0.8620 -0.8620 -0.8620 -0.8620 -0.8620 -0.8620 -0.8620 -0.8620 -0.8620 -0.8620 -0.8620 -0.8620 -0.8620 -0.8620 -0.8620 -0.8620 -0.8620 -0.8620 -0.8620 -0.8620 -0.8620 -0.8620 -0.8620 -0.8620 -0.8620 -0.8620 -0.8620 -0.8620 -0.8620 -0.8620 -0.8620 -0.8620 -0.8620 -0.8620 -0.8620 -0.8620 -0.8620 -0.8620 -0.8620 -0.8620 -0.8620 -0.8620 -0.8620 -0.8620 -0.8620 -0.8620 -0.8620 -0.8620 -0.8620 -0.8620 -0.8620 -0.8620 -0.8620 -0.8620 -0.8620 -0.8620 -0.8620 -0.8620 -0.8620 -0.8620 -0.8620 -0.8620 -0.8620 -0.8620 -0.8620 -0.8620 -0.8620 -0.8620 -0.8620 -0.8620 -0.8620 -0.8620 -0.8620 -0.8620 -0.8620 -0.8620 -0.8620 -0.8620 -0.8620 -0.8620 -0.8620 -0.8620 -0.8620 -0.8620 -0.8620 -0.8620 -0.8620 -0.8620 -0.8620 -0.8620 -0.8620 -0.8620 -0.8620 -0.8620 -0.8620 -0.8620 -0.8620 -0.8620 -0.8620 -0.8620 -0.8620 -0.8620 -0.8620 -0.8620 
-0.5046 -0.5046 -0.5046 -0.5046 -0.5046 -0.5046 -0.5046 -0.5046 -0.5046 -0.5046 -0.5046 -0.5046 -0.5046 -0.5046 -0.5046 -0.5046 -0.5046 -0.5046 -0.5046 -0.5046 -0.5046 -0.5046 -0.5046 -0.5046 -0.5046 -0.5046 -0.5046 -0.5046 -0.5046 -0.5046 -0.5046 -0.5046 -0.5046 -0.5046 -0.5046 -0.5046 -0.5046 -0.5046 -0.5046 -0.5046 -0.5046 -0.5046 -0.5046 -0.5046 -0.5046 -0.5046 -0.5046 -0.5046 -0.5046 -0.5046 -0.5046 -0.5046 -0.5046 -0.5046 -0.5046 -0.5046 -0.5046 -0.5046 -0.5046 -0.5046 -0.5046 -0.5046 -0.5046 -0.5046 -0.5046 -0.5046 -0.5046 -0.5046 -0.5046 -0.5046 -0.5046 -0.5046 -0.5046 -0.5046 -0.5046 -0.5046 -0.5046 -0.5046 -0.5046 -0.5046 -0.5046 -0.5046 -0.5046 -0.5046 -0.5046 -0.5046 -0.5046 -0.5046 -0.5046 -0.5046 -0.5046 -0.5046 -0.5046 -0.5046 -0.5046 -0.5046 -0.5046 -0.5046 -0.5046 -0.5046 -0.5046 -0.5046 -0.5046 -0.5046 -0.5046 -0.5046 
 0.2930  0.2930  0.2930  0.2930  0.2930  0.2930  0.2930  0.2930  0.2930  0.2930  0.2930  0.2930  0.2930  0.2930  0.2930  0.2930  0.2930  0.2930  0.2930  0.2930  0.2930  0.2930  0.2930  0.2930  0.2930  0.2930  0.2930  0.2930  0.2930  0.2930  0.2930  0.2930  0.2930  0.2930  0.2930  0.2930  0.2930  0.2930  0.2930  0.2930  0.2930  0.2930  0.2930  0.2930  0.2930  0.2930  0.2930  0.2930  0.2930  0.2930  0.2930  0.2930  0.2930  0.2930  0.2930  0.2930  0.2930  0.2930  0.2930  0.2930  0.2930  0.2930  0.2930  0.2930  0.2930  0.2930  0.2930  0.2930  0.2930  0.2930  0.2930  0.2930  0.2930  0.2930  0.2930  0.2930  0.2930  0.2930  0.2930  0.2930  0.2930  0.2930  0.2930  0.2930  0.2930  0.2930  0.2930  0.2930  0.2930  0.2930  0.2930  0.2930  0.2930  0.2930  0.2930  0.2930  0.2930  0.2930  0.2930  0.2930  0.2930  0.2930  0.2930  0.2930  0.2930  0.2930 
 0.7949  0.7949  0.7949  0.7949  0.7949  0.7949  0.7949  0.7949  0.7949  0.7949  0.7949  0.7949  0.7949  0.7949  0.7949  0.7949  0.7949  0.7949  0.7949  0.7949  0.7949  0.7949  0.7949  0.7949  0.7949  0.7949  0.7949  0.7949  0.7949  0.7949  0.7949  0.7949  0.7949  0.7949  0.7949  0.7949  0.7949  0.7949  0.7949  0.7949  0.7949  0.7949  0.7949  0.7949  0.7949  0.7949  0.7949  0.7949  0.7949  0.7949  0.7949  0.7949  0.7949  0.7949  0.7949  0.7949  0.7949  0.7949  0.7949  0.7949  0.7949  0.7949  0.7949  0.7949  0.7949  0.7949  0.7949  0.7949  0.7949  0.7949  0.7949  0.7949  0.7949  0.7949  0.7949  0.7949  0.7949  0.7949  0.7949  0.7949  0.7949  0.7949  0.7949  0.7949  0.7949  0.7949  0.7949  0.7949  0.7949  0.7949  0.7949  0.7949  0.7949  0.7949  0.7949  0.7949  0.7949  0.7949  0.7949  0.7949  0.7949  0.7949  0.7949  0.7949  0.7949  0.7949 
 0.9395  0.9395  0.9395  0.9395  0.9395  0.9395  0.9395  0.9395  0.9395  0.9395  0.9395  0.9395  0.9395  0.9395  0.9395  0.9395  0.9395  0.9395  0.9395  0.9395  0.9395  0.9395  0.9395  0.9395  0.9395  0.9395  0.9395  0.9395  0.9395  0.9395  0.9395  0.9395  0.9395  0.9395  0.9395  0.9395  0.9395  0.9395  0.9395  0.9395  0.9395  0.9395  0.9395  0.9395  0.9395  0.9395  0.9395  0.9395  0.9395  0.9395  0.9395  0.9395  0.9395  0.9395  0.9395  0.9395  0.9395  0.9395  0.9395  0.9395  0.9395  0.9395  0.9395  0.9395  0.9395  0.9395  0.9395  0.9395  0.9395  0.9395  0.9395  0.9395  0.9395  0.9395  0.9395  0.9395  0.9395  0.9395  0.9395  0.9395  0.9395  0.9395  0.9395  0.9395  0.9395  0.9395  0.9395  0.9395  0.9395  0.9395  0.9395  0.9395  0.9395  0.9395  0.9395  0.9395  0.9395  0.9395  0.9395  0.9395  0.9395  0.9395  0.9395  0.9395  0.9395  0.9395 
 0.9786  0.9786  0.9786  0.9786  0.9786  0.9786  0.9786  0.9786  0.9786  0.9786  0.9786  0.9786  0.9786  0.9786  0.9786  0.9786  0.9786  0.9786  0.9786  0.9786  0.9786  0.9786  0.9786  0.9786  0.9786  0.9786  0.9786  0.9786  0.9786  0.9786  0.9786  0.9786  0.9786  0.9786  0.9786  0.9786  0.9786  0.9786  0.9786  0.9786  0.9786  0.9786  0.9786  0.9786  0.9786  0.9786  0.9786  0.9786  0.9786  0.9786  0.9786  0.9786  0.9786  0.9786  0.9786  0.9786  0.9786  0.9786  0.9786  0.9786  0.9786  0.9786  0.9786  0.9786  0.9786  0.9786  0.9786  0.9786  0.9786  0.9786  0.9786  0.9786  0.9786  0.9786  0.9786  0.9786  0.9786  0.9786  0.9786  0.9786  0.9786  0.9786  0.9786  0.9786  0.9786  0.9786  0.9786  0.9786  0.9786  0.9786  0.9786  0.9786  0.9786  0.9786  0.9786  0.9786  0.9786  0.9786  0.9786  0.9786  0.9786  0.9786  0.9786  0.9786  0.9786  0.9786 
 0.9877  0.9877  0.9877  0.9877  0.9877  0.9877  0.9877  0.9877  0.9877  0.9877  0.9877  0.9877  0.9877  0.9877  0.9877  0.9877  0.9877  0.9877  0.9877  0.9877  0.9877  0.9877  0.9877  0.9877  0.9877  0.9877  0.9877  0.9877  0.9877  0.9877  0.9877  0.9877  0.9877  0.9877  0.9877  0.9877  0.9877  0.9877  0.9877  0.9877  0.9877  0.9877  0.9877  0.9877  0.9877  0.9877  0.9877  0.9877  0.9877  0.9877  0.9877  0.9877  0.9877  0.9877  0.9877  0.9877  0.9877  0.9877  0.9877  0.9877  0.9877  0.9877  0.9877  0.9877  0.9877  0.9877  0.9877  0.9877  0.9877  0.9877  0.9877  0.9877  0.9877  0.9877  0.9877  0.9877  0.9877  0.9877  0.9877  0.9877  0.9877  0.9877  0.9877  0.9877  0.9877  0.9877  0.9877  0.9877  0.9877  0.9877  0.9877  0.9877  0.9877  0.9877  0.9877  0.9877  0.9877  0.9877  0.9877  0.9877  0.9877  0.9877  0.9877  0.9877  0.9877  0.9877 
 0.9818  0.9818  0.9818  0.9818  0.9818  0.9818  0.9818  0.9818  0.9818  0.9818  0.9818  0.9818  0.9818  0.9818  0.9818  0.9818  0.9818  0.9818  0.9818  0.9818  0.9818  0.9818  0.9818  0.9818  0.9818  0.9818  0.9818  0.9818  0.9818  0.9818  0.9818  0.9818  0.9818  0.9818  0.9818  0.9818  0.9818  0.9818  0.9818  0.9818  0.9818  0.9818  0.9818  0.9818  0.9818  0.9818  0.9818  0.9818  0.9818  0.9818  0.9818  0.9818  0.9818  0.9818  0.9818  0.9818  0.9818  0.9818  0.9818  0.9818  0.9818  0.9818  0.9818  0.9818  0.9818  0.9818  0.9818  0.9818  0.9818  0.9818  0.9818  0.9818  0.9818  0.9818  0.9818  0.9818  0.9818  0.9818  0.9818  0.9818  0.9818  0.9818  0.9818  0.9818  0.9818  0.9818  0.9818  0.9818  0.9818  0.9818  0.9818  0.9818  0.9818  0.9818  0.9818  0.9818  0.9818  0.9818  0.9818  0.9818  0.9818  0.9818  0.9818  0.9818  0.9818  0.9818 
 0.9510  0.9510  0.9510  0.9510  0.9510  0.9510  0.9510  0.9510  0.9510  0.9510  0.9510  0.9510  0.9510  0.9510  0.9510  0.9510  0.9510  0.9510  0.9510  0.9510  0.9510  0.9510  0.9510  0.9510  0.9510  0.9510  0.9510  0.9510  0.9510  0.9510  0.9510  0.9510  0.9510  0.9510  0.9510  0.9510  0.9510  0.9510  0.9510  0.9510  0.9510  0.9510  0.9510  0.9510  0.9510  0.9510  0.9510  0.9510  0.9510  0.9510  0.9510  0.9510  0.9510  0.9510  0.9510  0.9510  0.9510  0.9510  0.9510  0.9510  0.9510  0.9510  0.9510  0.9510  0.9510  0.9510  0.9510  0.9510  0.9510  0.9510  0.9510  0.9510  0.9510  0.9510  0.9510  0.9510  0.9510  0.9510  0.9510  0.9510  0.9510  0.9510  0.9510  0.9510  0.9510  0.9510  0.9510  0.9510  0.9510  0.9510  0.9510  0.9510  0.9510  0.9510  0.9510  0.9510  0.9510  0.9510  0.9510  0.9510  0.9510  0.9510  0.9510  0.9510  0.9510  0.9510 
 0.8395  0.8395  0.8395  0.8395  0.8395  0.8395  0.8395  0.8395  0.8395  0.8395  0.8395  0.8395  0.8395  0.8395  0.8395  0.8395  0.8395  0.8395  0.8395  0.8395  0.8395  0.8395  0.8395  0.8395  0.8395  0.8395  0.8395  0.8395  0.8395  0.8395  0.8395  0.8395  0.8395  0.8395  0.8395  0.8395  0.8395  0.8395  0.8395  0.8395  0.8395  0.8395  0.8395  0.8395  0.8395  0.8395  0.8395  0.8395  0.8395  0.8395  0.8395  0.8395  0.8395  0.8395  0.8395  0.8395  0.8395  0.8395  0.8395  0.8395  0.8395  0.8395  0.8395  0.8395  0.8395  0.8395  0.8395  0.8395  0.8395  0.8395  0.8395  0.8395  0.8395  0.8395  0.8395  0.8395  0.8395  0.8395  0.8395  0.8395  0.8395  0.8395  0.8395  0.8395  0.8395  0.8395  0.8395  0.8395  0.8395  0.8395  0.8395  0.8395  0.8395  0.8395  0.8395  0.8395  0.8395  0.8395  0.8395  0.8395  0.8395  0.8395  0.8395  0.8395  0.8395  0.8395 
 0.4309  0.4309  0.4309  0.4309  0.4309  0.4309  0.4309  0.4309  0.4309  0.4309  0.4309  0.4309  0.4309  0.4309  0.4309  0.4309  0.4309  0.4309  0.4309  0.4309  0.4309  0.4309  0.4309  0.4309  0.4309  0.4309  0.4309  0.4309  0.4309  0.4309  0.4309  0.4309  0.4309  0.4309  0.4309  0.4309  0.4309  0.4309  0.4309  0.4309  0.4309  0.4309  0.4309  0.4309  0.4309  0.4309  0.4309  0.4309  0.4309  0.4309  0.4309  0.4309  0.4309  0.4309  0.4309  0.4309  0.4309  0.4309  0.4309  0.4309  0.4309  0.4309  0.4309  0.4309  0.4309  0.4309  0.4309  0.4309  0.4309  0.4309  0.4309  0.4309  0.4309  0.4309  0.4309  0.4309  0.4309  0.4309  0.4309  0.4309  0.4309  0.4309  0.4309  0.4309  0.4309  0.4309  0.4309  0.4309  0.4309  0.4309  0.4309  0.4309  0.4309  0.4309  0.4309  0.4309  0.4309  0.4309  0.4309  0.4309  0.4309  0.4309  0.4309  0.4309  0.4309  0.4309 
-0.3785 -0.3785 -0.3785 -0.3785 -0.3785 -0.3785 -0.3785 -0.3785 -0.3785 -0.3785 -0.3785 -0.3785 -0.3785 -0.3785 -0.3785 -0.3785 -0.3785 -0.3785 -0.3785 -0.3785 -0.3785 -0.3785 -0.3785 -0.3785 -0.3785 -0.3785 -0.3785 -0.3785 -0.3785 -0.3785 -0.3785 -0.3785 -0.3785 -0.3785 -0.3785 -0.3785 -0.3785 -0.3785 -0.3785 -0.3785 -0.3785 -0.3785 -0.3785 -0.3785 -0.3785 -0.3785 -0.3785 -0.3785 -0.3785 -0.3785 -0.3785 -0.3785 -0.3785 -0.3785 -0.3785 -0.3785 -0.3785 -0.3785 -0.3785 -0.3785 -0.3785 -0.3785 -0.3785 -0.3785 -0.3785 -0.3785 -0.3785 -0.3785 -0.3785 -0.3785 -0.3785 -0.3785 -0.3785 -0.3785 -0.3785 -0.3785 -0.3785 -0.3785 -0.3785 -0.3785 -0.3785 -0.3785 -0.3785 -0.3785 -0.3785 -0.3785 -0.3785 -0.3785 -0.3785 -0.3785 -0.3785 -0.3785 -0.3785 -0.3785 -0.3785 -0.3785 -0.3785 -0.3785 -0.3785 -0.3785 -0.3785 -0.3785 -0.3785 -0.3785 -0.3785 -0.3785 
-0.8229 -0.8229 -0.8229 -0.8229 -0.8229 -0.8229 -0.8229 -0.8229 -0.8229 -0.8229 -0.8229 -0.8229 -0.8229 -0.8229 -0.8229 -0.8229 -0.8229 -0.8229 -0.8229 -0.8229 -0.8229 -0.8229 -0.8229 -0.8229 -0.8229 -0.8229 -0.8229 -0.8229 -0.8229 -0.8229 -0.8229 -0.8229 -0.8229 -0.8229 -0.8229 -0.8229 -0.8229 -0.8229 -0.8229 -0.8229 -0.8229 -0.8229 -0.8229 -0.8229 -0.8229 -0.8229 -0.8229 -0.8229 -0.8229 -0.8229 -0.8229 -0.8229 -0.8229 -0.8229 -0.8229 -0.8229 -0.8229 -0.8229 -0.8229 -0.8229 -0.8229 -0.8229 -0.8229 -0.8229 -0.8229 -0.8229 -0.8229 -0.8229 -0.8229 -0.8229 -0.8229 -0.8229 -0.8229 -0.8229 -0.8229 -0.8229 -0.8229 -0.8229 -0.8229 -0.8229 -0.8229 -0.8229 -0.8229 -0.8229 -0.8229 -0.8229 -0.8229 -0.8229 -0.8229 -0.8229 -0.8229 -0.8229 -0.8229 -0.8229 -0.8229 -0.8229 -0.8229 -0.8229 -0.8229 -0.8229 -0.8229 -0.8229 -0.8229 -0.8229 -0.8229 -0.8229 
-0.9466 -0.9466 -0.9466 -0.9466 -0.9466 -0.9466 -0.9466 -0.9466 -0.9466 -0.9466 -0.9466 -0.9466 -0.9466 -0.9466 -0.9466 -0.9466 -0.9466 -0.9466 -0.9466 -0.9466 -0.9466 -0.9466 -0.9466 -0.9466 -0.9466 -0.9466 -0.9466 -0.9466 -0.9466 -0.9466 -0.9466 -0.9466 -0.9466 -0.9466 -0.9466 -0.9466 -0.9466 -0.9466 -0.9466 -0.9466 -0.9466 -0.9466 -0.9466 -0.9466 -0.9466 -0.9466 -0.9466 -0.9466 -0.9466 -0.9466 -0.9466 -0.9466 -0.9466 -0.9466 -0.9466 -0.9466 -0.9466 -0.9466 -0.9466 -0.9466 -0.9466 -0.9466 -0.9466 -0.9466 -0.9466 -0.9466 -0.9466 -0.9466 -0.9466 -0.9466 -0.9466 -0.9466 -0.9466 -0.9466 -0.9466 -0.9466 -0.9466 -0.9466 -0.9466 -0.9466 -0.9466 -0.9466 -0.9466 -0.9466 -0.9466 -0.9466 -0.9466 -0.9466 -0.9466 -0.9466 -0.9466 -0.9466 -0.9466 -0.9466 -0.9466 -0.9466 -0.9466 -0.9466 -0.9466 -0.9466 -0.9466 -0.9466 -0.9466 -0.9466 -0.9466 -0.9466 
-0.9806 -0.9806 -0.9806 -0.9806 -0.9806 -0.9806 -0.9806 -0.9806 -0.9806 -0.9806 -0.9806 -0.9806 -0.9806 -0.9806 -0.9806 -0.9806 -0.9806 -0.9806 -0.9806 -0.9806 -0.9806 -0.9806 -0.9806 -0.9806 -0.9806 -0.9806 -0.9806 -0.9806 -0.9806 -0.9806 -0.9806 -0.9806 -0.9806 -0.9806 -0.9806 -0.9806 -0.9806 -0.9806 -0.9806 -0.9806 -0.9806 -0.9806 -0.9806 -0.9806 -0.9806 -0.9806 -0.9806 -0.9806 -0.9806 -0.9806 -0.9806 -0.9806 -0.9806 -0.9806 -0.9806 -0.9806 -0.9806 -0.9806 -0.9806 -0.9806 -0.9806 -0.9806 -0.9806 -0.9806 -0.9806 -0.9806 -0.9806 -0.9806 -0.9806 -0.9806 -0.9806 -0.9806 -0.9806 -0.9806 -0.9806 -0.9806 -0.9806 -0.9806 -0.9806 -0.9806 -0.9806 -0.9806 -0.9806 -0.9806 -0.9806 -0.9806 -0.9806 -0.9806 -0.9806 -0.9806 -0.9806 -0.9806 -0.9806 -0.9806 -0.9806 -0.9806 -0.9806 -0.9806 -0.9806 -0.9806 -0.9806 -0.9806 -0.9806 -0.9806 -0.9806 -0.9806 
-0.9880 -0.9880 -0.9880 -0.9880 -0.9880 -0.9880 -0.9880 -0.9880 -0.9880 -0.9880 -0.9880 -0.9880 -0.9880 -0.9880 -0.9880 -0.9880 -0.9880 -0.9880 -0.9880 -0.9880 -0.9880 -0.9880 -0.9880 -0.9880 -0.9880 -0.9880 -0.9880 -0.9880 -0.9880 -0.9880 -0.9880 -0.9880 -0.9880 -0.9880 -0.9880 -0.9880 -0.9880 -0.9880 -0.9880 -0.9880 -0.9880 -0.9880 -0.9880 -0.9880 -0.9880 -0.9880 -0.9880 -0.9880 -0.9880 -0.9880 -0.9880 -0.9880 -0.9880 -0.9880 -0.9880 -0.9880 -0.9880 -0.9880 -0.9880 -0.9880 -0.9880 -0.9880 -0.9880 -0.9880 -0.9880 -0.9880 -0.9880 -0.9880 -0.9880 -0.9880 -0.9880 -0.9880 -0.9880 -0.9880 -0.9880 -0.9880 -0.9880 -0.9880 -0.9880 -0.9880 -0.9880 -0.9880 -0.9880 -0.9880 -0.9880 -0.9880 -0.9880 -0.9880 -0.9880 -0.9880 -0.9880 -0.9880 -0.9880 -0.9880 -0.9880 -0.9880 -0.9880 -0.9880 -0.9880 -0.9880 -0.9880 -0.9880 -0.9880 -0.9880 -0.9880 -0.9880 
-0.9806 -0.9806 -0.9806 -0.9806 -0.9806 -0.9806 -0.9806 -0.9806 -0.9806 -0.9806 -0.9806 -0.9806 -0.9806 -0.9806 -0.9806 -0.9806 -0.9806 -0.9806 -0.9806 -0.9806 -0.9806 -0.9806 -0.9806 -0.9806 -0.9806 -0.9806 -0.9806 -0.9806 -0.9806 -0.9806 -0.9806 -0.9806 -0.9806 -0.9806 -0.9806 -0.9806 -0.9806 -0.9806 -0.9806 -0.9806 -0.9806 -0.9806 -0.9806 -0.9806 -0.9806 -0.9806 -0.9806 -0.9806 -0.9806 -0.9806 -0.9806 -0.9806 -0.9806 -0.9806 -0.9806 -0.9806 -0.9806 -0.9806 -0.9806 -0.9806 -0.9806 -0.9806 -0.9806 -0.9806 -0.9806 -0.9806 -0.9806 -0.9806 -0.9806 -0.9806 -0.9806 -0.9806 -0.9806 -0.9806 -0.9806 -0.9806 -0.9806 -0.9806 -0.9806 -0.9806 -0.9806 -0.9806 -0.9806 -0.9806 -0.9806 -0.9806 -0.9806 -0.9806 -0.9806 -0.9806 -0.9806 -0.9806 -0.9806 -0.9806 -0.9806 -0.9806 -0.9806 -0.9806 -0.9806 -0.9806 -0.9806 -0.9806 -0.9806 -0.9806 -0.9806 -0.9806 
-0.9466 -0.9466 -0.9466 -0.9466 -0.9466 -0.9466 -0.9466 -0.9466 -0.9466 -0.9466 -0.9466 -0.9466 -0.9466 -0.9466 -0.9466 -0.9466 -0.9466 -0.9466 -0.9466 -0.9466 -0.9466 -0.9466 -0.9466 -0.9466 -0.9466 -0.9466 -0.9466 -0.9466 -0.9466 -0.9466 -0.9466 -0.9466 -0.9466 -0.9466 -0.9466 -0.9466 -0.9466 -0.9466 -0.9466 -0.9466 -0.9466 -0.9466 -0.9466 -0.9466 -0.9466 -0.9466 -0.9466 -0.9466 -0.9466 -0.9466 -0.9466 -0.9466 -0.9466 -0.9466 -0.9466 -0.9466 -0.9466 -0.9466 -0.9466 -0.9466 -0.9466 -0.9466 -0.9466 -0.9466 -0.9466 -0.9466 -0.9466 -0.9466 -0.9466 -0.9466 -0.9466 -0.9466 -0.9466 -0.9466 -0.9466 -0.9466 -0.9466 -0.9466 -0.9466 -0.9466 -0.9466 -0.9466 -0.9466 -0.9466 -0.9466 -0.9466 -0.9466 -0.9466 -0.9466 -0.9466 -0.9466 -0.9466 -0.9466 -0.9466 -0.9466 -0.9466 -0.9466 -0.9466 -0.9466 -0.9466 -0.9466 -0.9466 -0.9466 -0.9466 -0.9466 -0.9466 
-0.8229 -0.8229 -0.8229 -0.8229 -0.8229 -0.8229 -0.8229 -0.8229 -0.8229 -0.8229 -0.8229 -0.8229 -0.8229 -0.8229 -0.8229 -0.8229 -0.8229 -0.8229 -0.8229 -0.8229 -0.8229 -0.8229 -0.8229 -0.8229 -0.8229 -0.8229 -0.8229 -0.8229 -0.8229 -0.8229 -0.8229 -0.8229 -0.8229 -0.8229 -0.8229 -0.8229 -0.8229 -0.8229 -0.8229 -0.8229 -0.8229 -0.8229 -0.8229 -0.8229 -0.8229 -0.8229 -0.8229 -0.8229 -0.8229 -0.8229 -0.8229 -0.8229 -0.8229 -0.8229 -0.8229 -0.8229 -0.8229 -0.8229 -0.8229 -0.8229 -0.8229 -0.8229 -0.8229 -0.8229 -0.8229 -0.8229 -0.8229 -0.8229 -0.8229 -0.8229 -0.8229 -0.8229 -0.8229 -0.8229 -0.8229 -0.8229 -0.8229 -0.8229 -0.8229 -0.8229 -0.8229 -0.8229 -0.8229 -0.8229 -0.8229 -0.8229 -0.8229 -0.8229 -0.8229 -0.8229 -0.8229 -0.8229 -0.8229 -0.8229 -0.8229 -0.8229 -0.8229 -0.8229 -0.8229 -0.8229 -0.8229 -0.8229 -0.8229 -0.8229 -0.8229 -0.8229 
-0.3785 -0.3785 -0.3785 -0.3785 -0.3785 -0.3785 -0.3785 -0.3785 -0.3785 -0.3785 -0.3785 -0.3785 -0.3785 -0.3785 -0.3785 -0.3785 -0.3785 -0.3785 -0.3785 -0.3785 -0.3785 -0.3785 -0.3785 -0.3785 -0.3785 -0.3785 -0.3785 -0.3785 -0.3785 -0.3785 -0.3785 -0.3785 -0.3785 -0.3785 -0.3785 -0.3785 -0.3785 -0.3785 -0.3785 -0.3785 -0.3785 -0.3785 -0.3785 -0.3785 -0.3785 -0.3785 -0.3785 -0.3785 -0.3785 -0.3785 -0.3785 -0.3785 -0.3785 -0.3785 -0.3785 -0.3785 -0.3785 -0.3785 -0.3785 -0.3785 -0.3785 -0.3785 -0.3785 -0.3785 -0.3785 -0.3785 -0.3785 -0.3785 -0.3785 -0.3785 -0.3785 -0.3785 -0.3785 -0.3785 -0.3785 -0.3785 -0.3785 -0.3785 -0.3785 -0.3785 -0.3785 -0.3785 -0.3785 -0.3785 -0.3785 -0.3785 -0.3785 -0.3785 -0.3785 -0.3785 -0.3785 -0.3785 -0.3785 -0.3785 -0.3785 -0.3785 -0.3785 -0.3785 -0.3785 -0.3785 -0.3785 -0.3785 -0.3785 -0.3785 -0.3785 -0.3785 
 0.4309  0.4309  0.4309  0.4309  0.4309  0.4309  0.4309  0.4309  0.4309  0.4309  0.4309  0.4309  0.4309  0.4309  0.4309  0.4309  0.4309  0.4309  0.4309  0.4309  0.4309  0.4309  0.4309  0.4309  0.4309  0.4309  0.4309  0.4309  0.4309  0.4309  0.4309  0.4309  0.4309  0.4309  0.4309  0.4309  0.4309  0.4309  0.4309  0.4309  0.4309  0.4309  0.4309  0.4309  0.4309  0.4309  0.4309  0.4309  0.4309  0.4309  0.4309  0.4309  0.4309  0.4309  0.4309  0.4309  0.4309  0.4309  0.4309  0.4309  0.4309  0.4309  0.4309  0.4309  0.4309  0.4309  0.4309  0.4309  0.4309  0.4309  0.4309  0.4309  0.4309  0.4309  0.4309  0.4309  0.4309  0.4309  0.4309  0.4309  0.4309  0.4309  0.4309  0.4309  0.4309  0.4309  0.4309  0.4309  0.4309  0.4309  0.4309  0.4309  0.4309  0.4309  0.4309  0.4309  0.4309  0.4309  0.4309  0.4309  0.4309  0.4309  0.4309  0.4309  0.4309  0.4309 
 0.8395  0.8395  0.8395  0.8395  0.8395  0.8395  0.8395  0.8395  0.8395  0.8395  0.8395  0.8395  0.8395  0.8395  0.8395  0.8395  0.8395  0.8395  0.8395  0.8395  0.8395  0.8395  0.8395  0.8395  0.8395  0.8395  0.8395  0.8395  0.8395  0.8395  0.8395  0.8395  0.8395  0.8395  0.8395  0.8395  0.8395  0.8395  0.8395  0.8395  0.8395  0.8395  0.8395  0.8395  0.8395  0.8395  0.8395  0.8395  0.8395  0.8395  0.8395  0.8395  0.8395  0.8395  0.8395  0.8395  0.8395  0.8395  0.8395  0.8395  0.8395  0.8395  0.8395  0.8395  0.8395  0.8395  0.8395  0.8395  0.8395  0.8395  0.8395  0.8395  0.8395  0.8395  0.8395  0.8395  0.8395  0.8395  0.8395  0.8395  0.8395  0.8395  0.8395  0.8395  0.8395  0.8395  0.8395  0.8395  0.8395  0.8395  0.8395  0.8395  0.8395  0.8395  0.8395  0.8395  0.8395  0.8395  0.8395  0.8395  0.8395  0.8395  0.8395  0.8395  0.8395  0.8395 
 0.9510  0.9510  0.9510  0.9510  0.9510  0.9510  0.9510  0.9510  0.9510  0.9510  0.9510  0.9510  0.9510  0.9510  0.9510  0.9510  0.9510  0.9510  0.9510  0.9510  0.9510  0.9510  0.9510  0.9510  0.9510  0.9510  0.9510  0.9510  0.9510  0.9510  0.9510  0.9510  0.9510  0.9510  0.9510  0.9510  0.9510  0.9510  0.9510  0.9510  0.9510  0.9510  0.9510  0.9510  0.9510  0.9510  0.9510  0.9510  0.9510  0.9510  0.9510  0.9510  0.9510  0.9510  0.9510  0.9510  0.9510  0.9510  0.9510  0.9510  0.9510  0.9510  0.9510  0.9510  0.9510  0.9510  0.9510  0.9510  0.9510  0.9510  0.9510  0.9510  0.9510  0.9510  0.9510  0.9510  0.9510  0.9510  0.9510  0.9510  0.9510  0.9510  0.9510  0.9510  0.9510  0.9510  0.9510  0.9510  0.9510  0.9510  0.9510  0.9510  0.9510  0.9510  0.9510  0.9510  0.9510  0.9510  0.9510  0.9510  0.9510  0.9510  0.9510  0.9510  0.9510  0.9510 
 0.9818  0.9818  0.9818  0.9818  0.9818  0.9818  0.9818  0.9818  0.9818  0.9818  0.9818  0.9818  0.9818  0.9818  0.9818  0.9818  0.9818  0.9818  0.9818  0.9818  0.9818  0.9818  0.9818  0.9818  0.9818  0.9818  0.9818  0.9818  0.9818  0.9818  0.9818  0.9818  0.9818  0.9818  0.9818  0.9818  0.9818  0.9818  0.9818  0.9818  0.9818  0.9818  0.9818  0.9818  0.9818  0.9818  0.9818  0.9818  0.9818  0.9818  0.9818  0.9818  0.9818  0.9818  0.9818  0.9818  0.9818  0.9818  0.9818  0.9818  0.9818  0.9818  0.9818  0.9818  0.9818  0.9818  0.9818  0.9818  0.9818  0.9818  0.9818  0.9818  0.9818  0.9818  0.9818  0.9818  0.9818  0.9818  0.9818  0.9818  0.9818  0.9818  0.9818  0.9818  0.9818  0.9818  0.9818  0.9818  0.9818  0.9818  0.9818  0.9818  0.9818  0.9818  0.9818  0.9818  0.9818  0.9818  0.9818  0.9818  0.9818  0.9818  0.9818  0.9818  0.9818  0.9818 
 0.9877  0.9877  0.9877  0.9877  0.9877  0.9877  0.9877  0.9877  0.9877  0.9877  0.9877  0.9877  0.9877  0.9877  0.9877  0.9877  0.9877  0.9877  0.9877  0.9877  0.9877  0.9877  0.9877  0.9877  0.9877  0.9877  0.9877  0.9877  0.9877  0.9877  0.9877  0.9877  0.9877  0.9877  0.9877  0.9877  0.9877  0.9877  0.9877  0.9877  0.9877  0.9877  0.9877  0.9877  0.9877  0.9877  0.9877  0.9877  0.9877  0.9877  0.9877  0.9877  0.9877  0.9877  0.9877  0.9877  0.9877  0.9877  0.9877  0.9877  0.9877  0.9877  0.9877  0.9877  0.9877  0.9877  0.9877  0.9877  0.9877  0.9877  0.9877  0.9877  0.9877  0.9877  0.9877  0.9877  0.9877  0.9877  0.9877  0.9877  0.9877  0.9877  0.9877  0.9877  0.9877  0.9877  0.9877  0.9877  0.9877  0.9877  0.9877  0.9877  0.9877  0.9877  0.9877  0.9877  0.9877  0.9877  0.9877  0.9877  0.9877  0.9877  0.9877  0.9877  0.9877  0.9877 
 0.9786  0.9786  0.9786  0.9786  0.9786  0.9786  0.9786  0.9786  0.9786  0.9786  0.9786  0.9786  0.9786  0.9786  0.9786  0.9786  0.9786  0.9786  0.9786  0.9786  0.9786  0.9786  0.9786  0.9786  0.9786  0.9786  0.9786  0.9786  0.9786  0.9786  0.9786  0.9786  0.9786  0.9786  0.9786  0.9786  0.9786  0.9786  0.9786  0.9786  0.9786  0.9786  0.9786  0.9786  0.9786  0.9786  0.9786  0.9786  0.9786  0.9786  0.9786  0.9786  0.9786  0.9786  0.9786  0.9786  0.9786  0.9786  0.9786  0.9786  0.9786  0.9786  0.9786  0.9786  0.9786  0.9786  0.9786  0.9786  0.9786  0.9786  0.9786  0.9786  0.9786  0.9786  0.9786  0.9786  0.9786  0.9786  0.9786  0.9786  0.9786  0.9786  0.9786  0.9786  0.9786  0.9786  0.9786  0.9786  0.9786  0.9786  0.9786  0.9786  0.9786  0.9786  0.9786  0.9786  0.9786  0.9786  0.9786  0.9786  0.9786  0.9786  0.9786  0.9786  0.9786  0.9786 
 0.9395  0.9395  0.9395  0.9395  0.9395  0.9395  0.9395  0.9395  0.9395  0.9395  0.9395  0.9395  0.9395  0.9395  0.9395  0.9395  0.9395  0.9395  0.9395  0.9395  0.9395  0.9395  0.9395  0.9395  0.9395  0.9395  0.9395  0.9395  0.9395  0.9395  0.9395  0.9395  0.9395  0.9395  0.9395  0.9395  0.9395  0.9395  0.9395  0.9395  0.9395  0.9395  0.9395  0.9395  0.9395  0.9395  0.9395  0.9395  0.9395  0.9395  0.9395  0.9395  0.9395  0.9395  0.9395  0.9395  0.9395  0.9395  0.9395  0.9395  0.9395  0.9395  0.9395  0.9395  0.9395  0.9395  0.9395  0.9395  0.9395  0.9395  0.9395  0.9395  0.9395  0.9395  0.9395  0.9395  0.9395  0.9395  0.9395  0.9395  0.9395  0.9395  0.9395  0.9395  0.9395  0.9395  0.9395  0.9395  0.9395  0.9395  0.9395  0.9395  0.9395  0.9395  0.9395  0.9395  0.9395  0.9395  0.9395  0.9395  0.9395  0.9395  0.9395  0.9395  0.9395  0.9395 